 Gaussian 09, Revision D.01,
 Gaussian 09:  EM64L-G09RevD.01 24-Apr-2013

 ---------------------------------------------------------------------
 # irc=(calcall,stepsize=3,maxstep=10) 6-311++g(d,p) m062x iop(7/33=1)
 ---------------------------------------------------------------------

 -------------------
 Title Card Required
 -------------------
 Symbolic Z-matrix:
 Charge =  0 Multiplicity = 2

 SCF Done:  E(UM062X) =  -232.908424213     A.U. after   20 cycles
 SCF Done:  E(UM062X) =  -232.908442772     A.U. after   16 cycles
 SCF Done:  E(UM062X) =  -232.908443661     A.U. after   15 cycles
 SCF Done:  E(UM062X) =  -232.908487173     A.U. after   16 cycles
 SCF Done:  E(UM062X) =  -232.908552044     A.U. after   16 cycles
 SCF Done:  E(UM062X) =  -232.908633767     A.U. after   16 cycles
 SCF Done:  E(UM062X) =  -232.908727207     A.U. after   17 cycles
 SCF Done:  E(UM062X) =  -232.908827934     A.U. after   16 cycles
 SCF Done:  E(UM062X) =  -232.908932946     A.U. after   16 cycles
 SCF Done:  E(UM062X) =  -232.909040358     A.U. after   16 cycles
 SCF Done:  E(UM062X) =  -232.908437826     A.U. after   12 cycles
 SCF Done:  E(UM062X) =  -232.908484651     A.U. after   16 cycles
 SCF Done:  E(UM062X) =  -232.908572083     A.U. after   16 cycles
 SCF Done:  E(UM062X) =  -232.908706931     A.U. after   16 cycles
 SCF Done:  E(UM062X) =  -232.908897389     A.U. after   16 cycles
 SCF Done:  E(UM062X) =  -232.909153658     A.U. after   16 cycles
 SCF Done:  E(UM062X) =  -232.909486860     A.U. after   16 cycles
 SCF Done:  E(UM062X) =  -232.909907565     A.U. after   15 cycles
 SCF Done:  E(UM062X) =  -232.910424909     A.U. after   15 cycles
 SCF Done:  E(UM062X) =  -232.911046162     A.U. after   14 cycles

                          Input orientation:
 ---------------------------------------------------------------------
 Center     Atomic      Atomic             Coordinates (Angstroms)
 Number     Number       Type             X           Y           Z
 ---------------------------------------------------------------------
      1          6           0        1.283702   -0.303007   -0.137524
      2          1           0        1.286597   -0.381826    0.941195
      3          1           0        2.252271   -0.346737   -0.620015
      4          6           0        0.151004   -0.596423   -0.859731
      5          1           0        0.234723   -0.687206   -1.939696
      6          6           0       -1.226438   -0.643074   -0.284405
      7          1           0       -1.814127    0.143154   -0.774890
      8          1           0       -1.699230   -1.585980   -0.586310
      9          6           0       -1.296375   -0.464952    1.227865
     10          1           0       -0.842335    0.484794    1.517010
     11          1           0       -2.334392   -0.469907    1.563078
     12          1           0       -0.775306   -1.273120    1.747178
     13          8           0        0.987348    1.646529   -0.016023
     14          1           0        0.977760    1.887721   -0.952721
 ---------------------------------------------------------------------

 Alpha  occ. eigenvalues --  -19.61165 -10.57639 -10.57012 -10.54765 -10.52527
 Alpha  occ. eigenvalues --   -1.07330  -0.92043  -0.83155  -0.74081  -0.63991
 Alpha  occ. eigenvalues --   -0.57012  -0.53142  -0.51555  -0.49080  -0.46110
 Alpha  occ. eigenvalues --   -0.44691  -0.41836  -0.41651  -0.41349  -0.36413
 Alpha  occ. eigenvalues --   -0.28124
 Alpha virt. eigenvalues --   -0.00554   0.01034   0.01241   0.01900   0.03828
 Alpha virt. eigenvalues --    0.03867   0.04218   0.04900   0.06187   0.06843
 Alpha virt. eigenvalues --    0.08831   0.10096   0.10907   0.11694   0.12290

  Beta  occ. eigenvalues --  -19.60061 -10.57678 -10.56681 -10.54796 -10.52528
  Beta  occ. eigenvalues --   -1.03432  -0.90933  -0.82662  -0.73777  -0.63227
  Beta  occ. eigenvalues --   -0.56555  -0.52252  -0.50692  -0.47832  -0.45756
  Beta  occ. eigenvalues --   -0.41970  -0.41541  -0.41154  -0.35770  -0.33774
  Beta virt. eigenvalues --   -0.06749  -0.00463   0.01174   0.01448   0.02278
  Beta virt. eigenvalues --    0.03957   0.04079   0.04678   0.05582   0.06805
  Beta virt. eigenvalues --    0.07446   0.08604   0.10100   0.10910   0.11725

 Mulliken charges and spin densities:
               1          2
     1  C   -0.621685  -0.123116
     2  H    0.208756   0.016469
     3  H    0.213223   0.007340
     4  C    0.220820   0.602428
     5  H    0.200392  -0.026269
     6  C   -0.486162  -0.058243
     7  H    0.189246   0.024764
     8  H    0.166210   0.022470
     9  C   -0.495884   0.003907
    10  H    0.197351   0.002237
    11  H    0.158515  -0.000548
    12  H    0.151899   0.002285
    13  O   -0.313270   0.537213
    14  H    0.210588  -0.010937
 Sum of Mulliken charges =   0.00000   1.00000

 Dipole moment (field-independent basis, Debye):
    X=             -0.6352    Y=             -1.9798    Z=             -1.6639  Tot=              2.6630
 Quadrupole moment (field-independent basis, Debye-Ang):
   XX=            -31.8703   YY=            -36.5951   ZZ=            -30.1199
   XY=             -1.7910   XZ=             -1.3862   YZ=             -2.6984

  Exact polarizability:   0.000   0.000   0.000   0.000   0.000   0.000
 Approx polarizability:  66.338   6.180  78.364   4.985   5.661  62.111

 Normal termination of Gaussian 09 at Mon Mar 15 22:42:14 2021.
